54   
Iteration 0 Energy -1349.66097803
O       -6.3049400000   -0.6279600000    1.3739200000
H       -5.5499800000   -1.2240900000    1.6287300000
H       -7.0478600000   -1.1258800000    1.7612100000
O       -2.6137900000    0.4928100000   -0.6820900000
H       -2.2912500000   -0.0950000000   -1.4079600000
H       -3.5470300000    0.1641900000   -0.6607200000
O       -2.2042000000   -3.1313600000    0.4199300000
H       -2.1253100000   -4.0957200000    0.2937100000
H       -2.6659600000   -2.9037100000   -0.4334000000
O       -4.6253300000    1.5173300000    1.8286100000
H       -4.0774200000    0.8485900000    2.3007000000
H       -5.4188800000    0.9549500000    1.6552400000
O        0.4748500000    2.4687900000   -0.6341300000
H       -0.3097200000    2.8531600000   -1.0981300000
H        1.1139700000    3.1996800000   -0.7181400000
O       -4.0863600000   -1.9020700000    2.1143800000
H       -3.4718400000   -1.3431700000    2.6452200000
H       -3.4287000000   -2.4031700000    1.5774600000
O       -5.1663500000   -0.4768300000   -1.1659700000
H       -5.8098700000   -0.4442700000   -0.4213000000
H       -5.4470300000    0.3209700000   -1.6832500000
O       -2.0037700000    2.9827000000   -1.6424900000
H       -2.2482600000    2.0840100000   -1.3002100000
H       -2.7446200000    3.4770000000   -1.2129900000
O        0.2082500000    0.0651700000   -2.1642200000
H        0.2629200000   -0.6033900000   -1.4366300000
H        0.5131200000    0.8544000000   -1.6667000000
O       -4.2294300000    3.4914600000   -0.1959200000
H       -4.5321200000    2.7363700000    0.3655500000
H       -3.8442400000    4.0361000000    0.5309300000
O       -3.4285200000   -2.4654500000   -1.8269500000
H       -2.9965900000   -1.9691800000   -2.5655300000
H       -4.2187700000   -1.8845500000   -1.7010100000
O       -0.0529900000   -1.3605700000    0.1430800000
H       -0.7363300000   -2.0615600000    0.2554300000
H       -0.1853400000   -0.8502000000    0.9630800000
O       -2.1743900000   -0.5505100000   -3.2804400000
H       -1.2046800000   -0.3741900000   -3.1869900000
H       -2.4598500000    0.2684400000   -3.7465100000
O       -1.0389200000    1.2668200000    1.3619700000
H       -0.3063200000    1.6500200000    0.8184600000
H       -1.6193200000    0.9659000000    0.6127300000
O       -2.5626300000    0.0810100000    3.2456300000
H       -1.8800200000    0.5003000000    2.6645900000
H       -2.2063300000    0.3006200000    4.1262900000
O       -2.8792100000    2.0906500000   -4.0558800000
H       -2.3732400000    2.5614600000   -3.3517000000
H       -2.6651500000    2.6277700000   -4.8395200000
O       -5.2514900000    1.9140300000   -2.3743000000
H       -4.5708700000    1.9736200000   -3.0802500000
H       -5.0181600000    2.6852500000   -1.8130500000
O       -2.7321200000    3.5448100000    2.1110000000
H       -1.9940600000    2.9170800000    1.9689700000
H       -3.4568700000    2.9186500000    2.3289200000
54   
Iteration 1 Energy -1349.69048322
O       -6.1433436080   -0.6464794677    1.3469124760
H       -5.4177815342   -1.2559048992    1.6543785180
H       -6.9810678381   -1.0496381123    1.6955790553
O       -2.6638172137    0.5128081073   -0.7692038612
H       -2.2815337068   -0.0348657227   -1.4959808917
H       -3.6076483440    0.2072634841   -0.6947688514
O       -2.2625510467   -2.9823556306    0.3017346472
H       -2.1179482603   -3.9642835401    0.3461729712
H       -2.7079716749   -2.8362062932   -0.5831672422
O       -4.6784929803    1.4832388366    1.8124688240
H       -4.0286599334    0.9075890652    2.2855143526
H       -5.4696780397    0.9027671820    1.6952131450
O        0.3643258052    2.4419253793   -0.6536443806
H       -0.4164024156    2.8777812738   -1.0832049778
H        1.0796495936    3.1265155969   -0.7035931897
O       -4.0992376659   -1.9103085545    2.0906453923
H       -3.5250218229   -1.3154735024    2.6334163307
H       -3.4649978729   -2.4250506498    1.5286837194
O       -5.0734396345   -0.3966810211   -1.1344544123
H       -5.7210751423   -0.4724069508   -0.3890850244
H       -5.3304915588    0.4089141102   -1.6521253019
O       -2.0069798679    2.8440908139   -1.6634890427
H       -2.2577391146    1.9524791423   -1.3131369669
H       -2.6963068348    3.4157973545   -1.2368817298
O        0.1940579474    0.0134964048   -2.1397590047
H        0.2255290797   -0.5939497912   -1.3610776184
H        0.4747054413    0.8796921855   -1.7501261084
O       -4.1949059553    3.4734895598   -0.1659926864
H       -4.4531169496    2.6827919967    0.3682788345
H       -3.8041079730    4.0567051791    0.5279022205
O       -3.4183263333   -2.4620290851   -1.7540602565
H       -2.9221179471   -1.9785089630   -2.4613221809
H       -4.2153227016   -1.8947326617   -1.6082229578
O       -0.0869333217   -1.4268299491    0.1230399103
H       -0.7917032401   -2.1093651851    0.2674827911
H       -0.1732475614   -0.8431269898    0.9178506952
O       -2.1453531595   -0.5035163907   -3.2055671191
H       -1.1807249386   -0.3303984166   -3.0775975168
H       -2.4709627923    0.2859252892   -3.7051767482
O       -1.1269769121    1.2617347840    1.3230360254
H       -0.3288784472    1.6784009907    0.9076545214
H       -1.6751283566    0.9537606454    0.5597155867
O       -2.5344909983    0.1032952150    3.1547015120
H       -1.8044965697    0.5173242416    2.6299080715
H       -2.2762838502    0.2799164991    4.0938024609
O       -2.8929113763    2.0745076842   -3.9444418181
H       -2.4106927765    2.5753516643   -3.2352437265
H       -2.6840705638    2.5764175005   -4.7741236412
O       -5.2454613501    1.8834333508   -2.4143895953
H       -4.5416701834    1.9663661050   -3.1041112499
H       -5.0418318940    2.6412096811   -1.8142709149
O       -2.7284756884    3.5425723978    2.0954998889
H       -2.0106078287    2.8846142483    1.9087203417
H       -3.4606020888    2.9412158084    2.3692667237
54   
Iteration 2 Energy -1349.70440121
O       -6.0067503236   -0.6491550215    1.2495017587
H       -5.2595781504   -1.2299029469    1.5931019860
H       -6.8613511675   -1.0110248660    1.6106060092
O       -2.6457780552    0.5774008861   -0.8353154832
H       -2.3172423554    0.0572188647   -1.6021064437
H       -3.5964386527    0.2816778469   -0.7379717078
O       -2.2376344457   -2.8600668726    0.4217763675
H       -2.1089984788   -3.8455472366    0.4022792186
H       -2.7031941958   -2.6210478446   -0.4546260332
O       -4.6873446277    1.4968594639    1.7714716042
H       -3.9710278654    1.0081589492    2.2432795389
H       -5.4144715384    0.8287902392    1.7187917682
O        0.2754151700    2.3720964297   -0.6500704228
H       -0.5485669417    2.7724867888   -1.0451422532
H        0.9764322518    3.0773784792   -0.7148984948
O       -4.0594995114   -1.9390972930    2.0621607654
H       -3.4972789610   -1.3151625245    2.5811526221
H       -3.4550313852   -2.3855648670    1.4114226470
O       -4.9093120040   -0.3200910049   -1.0760197095
H       -5.5232288114   -0.4302402617   -0.3052347732
H       -5.2035630298    0.4563442907   -1.6237318680
O       -2.0459364368    2.7322987729   -1.6626584414
H       -2.3048890556    1.8245148556   -1.3359514653
H       -2.6967412866    3.3105804103   -1.1981180849
O        0.1545897058   -0.0543723784   -2.1041452212
H        0.1383006155   -0.5826195669   -1.2672382065
H        0.3868108090    0.8634476628   -1.8066772080
O       -4.1453592399    3.3948300977   -0.1654958974
H       -4.3319933891    2.6176763576    0.4155520765
H       -3.7554136351    4.0201607898    0.4883803997
O       -3.4803177306   -2.3878930688   -1.8640365534
H       -2.9152702567   -1.8690449382   -2.4811766427
H       -4.2229912337   -1.7943314794   -1.5999972484
O       -0.1392344919   -1.4913418348    0.0712607259
H       -0.9402561228   -2.0775938482    0.1969385822
H       -0.1692058500   -0.8913139894    0.8641473250
O       -2.0841126053   -0.4892035397   -3.0342637018
H       -1.1258990896   -0.2774580984   -2.9044432687
H       -2.4478298210    0.2710959797   -3.5563514359
O       -1.2424779815    1.2705520848    1.2601494600
H       -0.4253813329    1.6800156451    0.8894414323
H       -1.7637475832    0.9480755611    0.4868903033
O       -2.5721517495    0.0955123200    3.0576423234
H       -1.8290576292    0.5006943621    2.5342634660
H       -2.3427497308    0.2684102235    4.0097671917
O       -2.9645131718    2.0174708455   -3.8315707763
H       -2.5085962246    2.4657738073   -3.0589031238
H       -2.7136514649    2.5467957670   -4.6393319305
O       -5.2226596224    1.8340737785   -2.4549836478
H       -4.4753389332    1.9302010034   -3.1040859257
H       -5.0605796064    2.5837349036   -1.8289540714
O       -2.7052935853    3.5347809958    2.0823139799
H       -2.0730620800    2.8060885871    1.8293408702
H       -3.4538671131    2.9981564338    2.4412276183
54   
Iteration 3 Energy -1349.71892901
O       -5.8373592058   -0.6760237504    1.1351732554
H       -5.1135246035   -1.2740102113    1.5411201479
H       -6.6984594131   -0.9880498745    1.4949487772
O       -2.5602944049    0.5264711464   -0.8227630996
H       -2.3688689846    0.0235538623   -1.6501425492
H       -3.5389272598    0.3006747979   -0.7423182148
O       -2.4060416441   -2.6817392427    0.3015066495
H       -2.1684426075   -3.6281620693    0.4240150178
H       -2.8526241655   -2.6515380670   -0.6264006888
O       -4.6122746615    1.5565694895    1.7216302887
H       -3.9184329626    1.0669819357    2.2170476957
H       -5.2834824007    0.8314918650    1.6417195661
O        0.1926366041    2.2680868254   -0.6514675878
H       -0.6758623491    2.5764427307   -1.0505070898
H        0.8023516953    3.0421462578   -0.7349185811
O       -4.0294848756   -1.9260347131    2.0736951785
H       -3.4507284032   -1.2635231754    2.5114734618
H       -3.4357375025   -2.3022228255    1.3743597747
O       -4.7874269132   -0.2054182185   -1.0142680507
H       -5.3411095864   -0.2769879884   -0.1964118460
H       -5.1675457117    0.4867466339   -1.6269521512
O       -2.0865796134    2.7468331912   -1.6383044150
H       -2.3313910866    1.8203320969   -1.2830108824
H       -2.7562118022    3.2652241333   -1.1518916225
O        0.1511939079   -0.0793033154   -2.0682284763
H        0.0328432125   -0.6271801751   -1.2430069041
H        0.3157558623    0.8334789417   -1.7340256439
O       -4.0959762056    3.2847704348   -0.1747567521
H       -4.2430507561    2.5507195102    0.4733750426
H       -3.7132057266    3.9376347022    0.4523422157
O       -3.4627074012   -2.3123737648   -1.7749618744
H       -2.8613652416   -1.7907719970   -2.3506505936
H       -4.1416534507   -1.6360627501   -1.5506336545
O       -0.1064999914   -1.4637856561    0.0146909879
H       -0.9703510009   -1.9726287369    0.1018110383
H       -0.1506028030   -0.9063360329    0.8273908165
O       -2.0375661879   -0.4468484762   -2.8834883481
H       -1.0635022154   -0.2962894390   -2.6996424970
H       -2.3409755394    0.3122998481   -3.4378828062
O       -1.3607772665    1.2912928999    1.1953391789
H       -0.5476688883    1.6513491657    0.7862536499
H       -1.8647152162    0.9527648107    0.4116351832
O       -2.6674189870    0.0629689247    2.9677815091
H       -1.9588522936    0.4692580019    2.3867614406
H       -2.3804357767    0.2651123206    3.8907556055
O       -3.0500888712    1.9292085068   -3.7011915137
H       -2.5799107171    2.3269674953   -2.8934026433
H       -2.7860212056    2.4954845950   -4.4679770945
O       -5.2022583623    1.7596044462   -2.4601610399
H       -4.4222747730    1.8410680014   -3.0801584677
H       -5.0657100310    2.5235202420   -1.8495583232
O       -2.6479104469    3.5211816277    2.0663146711
H       -2.1752920632    2.7002693219    1.7594230552
H       -3.4104997112    3.1060617194    2.5378792034
54   
Iteration 4 Energy -1349.69636604
O       -5.8029112212   -0.6480101324    1.2056134899
H       -5.1214640705   -1.2946837158    1.6349520688
H       -6.6689117983   -0.9833120615    1.4872814038
O       -2.5773242580    0.6374792130   -0.6242417723
H       -2.2219329035    0.1264837731   -1.4180003375
H       -3.5288924900    0.3078444777   -0.7120197298
O       -2.3857965186   -2.6981174103    0.2410121490
H       -2.2007363189   -3.6497654977    0.3206717401
H       -2.8584000793   -2.6198885943   -0.6744595759
O       -4.5452672397    1.5676618626    1.7319425358
H       -3.9292347415    1.0020717389    2.2493155793
H       -5.2341569151    0.8886781032    1.5107912121
O        0.1532931184    2.2415652531   -0.6988657135
H       -0.6570534280    2.6352050988   -1.1382523316
H        0.7711639712    2.9964594965   -0.7312785069
O       -4.0494981922   -1.9381895183    2.0855968109
H       -3.4990488860   -1.2497722415    2.5248905504
H       -3.3990716163   -2.2567306890    1.4074640166
O       -4.8675711277   -0.2550280884   -1.0831290280
H       -5.4633675193   -0.3411987361   -0.2949137366
H       -5.1931081885    0.5031167027   -1.6498204540
O       -2.0914240727    2.6725716009   -1.5690171563
H       -2.3221219401    1.7744489868   -1.1102245427
H       -2.8093338060    3.2019516207   -1.1528276829
O        0.2378089082   -0.0482408211   -2.0504108443
H        0.1784296885   -0.6778604574   -1.2717948200
H        0.3154591082    0.8212340594   -1.6063478963
O       -4.0889380904    3.3063985793   -0.1724957868
H       -4.3152358283    2.5452557370    0.4302538845
H       -3.7323043815    3.9183064172    0.5094907290
O       -3.4906789928   -2.2986974572   -1.7467302491
H       -2.8846457094   -1.7946727874   -2.3447182339
H       -4.1230620355   -1.5575700167   -1.5614487705
O       -0.1353501932   -1.4385833762    0.0247979214
H       -1.0068959876   -1.9195085231    0.1274445678
H       -0.1461451118   -0.8884542860    0.8318032889
O       -2.0318509156   -0.5015760767   -3.0611087614
H       -1.0458228245   -0.3653862547   -2.8244662566
H       -2.3061845750    0.2783417690   -3.5891319577
O       -1.3899281083    1.2639040244    1.2466090385
H       -0.5804464786    1.6150488466    0.8126647274
H       -1.8442681253    0.8952290780    0.4314081826
O       -2.6677124058    0.0937077651    2.9382266178
H       -1.9842266865    0.5195763930    2.3421113655
H       -2.3445860703    0.2878255349    3.8384214166
O       -2.9802972081    1.9108079064   -3.6797329174
H       -2.4858461411    2.4623010483   -2.9829202462
H       -2.8241367453    2.4175063215   -4.4953762542
O       -5.2943430695    1.7568045237   -2.4161978628
H       -4.5386511873    1.7751247890   -3.0717295118
H       -5.0904489683    2.5314605771   -1.8487027821
O       -2.6000380555    3.5288790929    2.0635163193
H       -2.1613643436    2.6917519180    1.7690173425
H       -3.3694392304    3.1715244356    2.5644267598
54   
Iteration 5 Energy -1349.71627482
O       -5.8439750122   -0.6101120737    1.2129724261
H       -5.1326347805   -1.2542240031    1.6058513474
H       -6.6977088359   -0.9781322072    1.4980817610
O       -2.7024778504    0.4829469762   -0.6879301976
H       -2.2340346192    0.0094416756   -1.4475866018
H       -3.6688247643    0.1817903335   -0.7571103066
O       -2.3320254372   -2.7194511726    0.2866609928
H       -2.1881214202   -3.6840852148    0.3045791808
H       -2.8336273049   -2.5526814822   -0.6066356690
O       -4.5656208161    1.5493172749    1.7279522206
H       -3.9246449194    1.0118978364    2.2550651819
H       -5.2544205408    0.8782870284    1.4924407475
O        0.1469948776    2.2502612169   -0.7036204901
H       -0.6536944602    2.6725376871   -1.1341910632
H        0.7911718782    2.9834969685   -0.7268875107
O       -4.0201484646   -1.9636861930    2.1078676165
H       -3.4892581504   -1.2608791737    2.5619143291
H       -3.3862680953   -2.2824726280    1.4060727968
O       -4.8325262211   -0.2586790746   -1.1035228271
H       -5.4306434517   -0.4017910899   -0.3169905261
H       -5.1821880890    0.5178886527   -1.6335229253
O       -2.0792933272    2.7848471765   -1.6079651653
H       -2.2745741680    1.8703172015   -1.1832119273
H       -2.8159184718    3.2656551967   -1.1510974126
O        0.2527079941   -0.0510416222   -2.0671651160
H        0.2371988945   -0.6778980924   -1.2881190905
H        0.3202854115    0.8170299424   -1.6098535022
O       -4.1040637339    3.3272863333   -0.1530087381
H       -4.3419877745    2.5483386839    0.4270320541
H       -3.7438018283    3.9392297563    0.5293523053
O       -3.5143473018   -2.2806831469   -1.8206680305
H       -2.9022205426   -1.7732355626   -2.4196830800
H       -4.1692416000   -1.5617984921   -1.5804337968
O       -0.1699393049   -1.4584490410    0.0546433091
H       -1.0325138139   -1.9495896147    0.1551520588
H       -0.1464705698   -0.8842190553    0.8473610606
O       -2.0134525666   -0.5201897036   -3.0499268435
H       -1.0230202798   -0.3415464793   -2.8604954302
H       -2.3266926577    0.2453795044   -3.5806098084
O       -1.3034154165    1.2962862256    1.3508058537
H       -0.5154020010    1.6290238847    0.8578967841
H       -1.8237243182    0.8916118642    0.5889145405
O       -2.6519076868    0.1004384540    2.9385617099
H       -1.9614700090    0.5316043507    2.3549562496
H       -2.3434881602    0.2865059783    3.8448642375
O       -2.9730727575    1.9083898783   -3.7118016809
H       -2.4935575196    2.4427415624   -2.9931658899
H       -2.8224980499    2.4282896963   -4.5202635640
O       -5.3121031870    1.7712558337   -2.4242966916
H       -4.5534879142    1.7885711530   -3.0731165081
H       -5.1099505356    2.5398456449   -1.8480370710
O       -2.5915998178    3.5407722326    2.0617083343
H       -2.1371400046    2.7093270697    1.7736827256
H       -3.3584805105    3.1855118517    2.5658876401
54   
Iteration 6 Energy -1349.72710374
O       -5.8421304549   -0.6248033646    1.1599050105
H       -5.1114459881   -1.2450945969    1.5430952011
H       -6.7064906871   -0.9843226797    1.4738715837
O       -2.5352043449    0.4772604467   -0.7528588948
H       -2.2425298071   -0.0503766611   -1.5225515292
H       -3.5387813978    0.2714882603   -0.6754217214
O       -2.3599012586   -2.6966009659    0.2849534429
H       -2.1924936510   -3.6691004122    0.3226761163
H       -2.8531652495   -2.5442902978   -0.6185211202
O       -4.6126449138    1.5546047444    1.7048706630
H       -3.9149077483    1.0783815744    2.2236257520
H       -5.2744146121    0.8427158081    1.5427932916
O        0.1615277163    2.2651738298   -0.6638045126
H       -0.6636223899    2.6661705463   -1.0710574542
H        0.8364697513    2.9837686358   -0.7082014589
O       -4.0032427167   -1.9534317447    2.1106970753
H       -3.4594767164   -1.2615437511    2.5697625778
H       -3.4101966754   -2.3087690896    1.3864457626
O       -4.9341734282   -0.2676966798   -1.0872776571
H       -5.4762608252   -0.3990464517   -0.2620918109
H       -5.2656431618    0.4979047649   -1.6517594490
O       -2.1251414679    2.7883657655   -1.6109051674
H       -2.3514225437    1.8657738332   -1.2800482776
H       -2.8184340330    3.2910338768   -1.1038436835
O        0.2361507443   -0.0807421396   -2.0876708739
H        0.2068084040   -0.6716051061   -1.2916905354
H        0.3235258506    0.8169834721   -1.6714038417
O       -4.1056262612    3.3222118144   -0.1457713645
H       -4.3013250073    2.5556164187    0.4594498018
H       -3.7412101426    3.9549112696    0.5149541625
O       -3.4827443301   -2.2751865162   -1.8518767619
H       -2.8779587169   -1.7574747202   -2.4468696037
H       -4.1895497962   -1.6176777939   -1.5953198637
O       -0.1576694632   -1.4704250267    0.0684373375
H       -1.0148726612   -1.9839784633    0.1484982826
H       -0.1451305444   -0.8881214184    0.8657636546
O       -1.9737370833   -0.5325019391   -2.9616900353
H       -1.0077569243   -0.3067841549   -2.8219542122
H       -2.3300089911    0.2204553203   -3.4972037177
O       -1.2873664863    1.3180049925    1.2610942748
H       -0.4631635524    1.6435629317    0.8254657952
H       -1.8506247872    0.9321981019    0.5320001958
O       -2.6601670045    0.0724260470    2.9776454713
H       -1.9329876894    0.4901318190    2.4330637185
H       -2.3844549819    0.2676276405    3.8998798121
O       -3.0269809094    1.9061416190   -3.7467664872
H       -2.5736769881    2.3403531479   -2.9543384419
H       -2.8269081205    2.4728193515   -4.5310955946
O       -5.2746440297    1.7685394935   -2.4492700057
H       -4.4947356718    1.8200640315   -3.0650347508
H       -5.1206019579    2.5344800552   -1.8452424514
O       -2.6009768754    3.5676060772    2.0626248969
H       -2.1257758293    2.7405648920    1.7829555060
H       -3.3554235962    3.1835133942    2.5663718915
54   
Iteration 7 Energy -1349.72698987
O       -5.7859115712   -0.6873274890    1.1978152569
H       -5.0745416297   -1.3057797301    1.6141801361
H       -6.6718540426   -1.0193037201    1.4771001228
O       -2.6167143674    0.5187132445   -0.7775550282
H       -2.2768634918    0.0175057708   -1.5446156338
H       -3.5821383011    0.2083987705   -0.7940834423
O       -2.4227773677   -2.6590218670    0.2216184579
H       -2.2450960425   -3.6250663187    0.3134209823
H       -2.8527987205   -2.5607453493   -0.7244685267
O       -4.6317645438    1.5837734465    1.6719756538
H       -3.9176902660    1.1369780918    2.1841023033
H       -5.2583773765    0.8286642563    1.5623166102
O        0.1724550331    2.2588762196   -0.6530419016
H       -0.6793698895    2.6448290095   -1.0186988862
H        0.8441132078    2.9790991763   -0.7249690595
O       -4.0505018762   -1.9251255355    2.0492438558
H       -3.4875322827   -1.2639551839    2.5211799711
H       -3.4304312286   -2.2836200489    1.3554300728
O       -4.8426608038   -0.3009654424   -1.0657342901
H       -5.4096736789   -0.3767551052   -0.2568674284
H       -5.1801041917    0.4374417657   -1.6545038803
O       -2.1580898861    2.6988015522   -1.5988568466
H       -2.3391252499    1.7735595157   -1.2702799617
H       -2.8537102301    3.1975923609   -1.0904456356
O        0.2537182547   -0.0873576002   -2.0804660330
H        0.1578062157   -0.6677204768   -1.2796023125
H        0.3496484805    0.8176039048   -1.6862018408
O       -4.1020766074    3.3258999011   -0.1251745912
H       -4.2645447072    2.5683376063    0.5002066002
H       -3.7440357289    3.9671358965    0.5276603714
O       -3.5140995688   -2.2428011547   -1.7889428646
H       -2.8665038675   -1.7781373630   -2.3771554370
H       -4.2125031939   -1.5543168315   -1.6378038743
O       -0.1231748092   -1.4632199851    0.0463481106
H       -0.9956711117   -1.9584744121    0.1227109811
H       -0.1396839656   -0.9034751891    0.8581498876
O       -1.9572265247   -0.5233175413   -2.8880374621
H       -0.9861375567   -0.3484286395   -2.7281313153
H       -2.2907190101    0.2340138591   -3.4294227767
O       -1.3567339942    1.3059246972    1.2342758506
H       -0.5066151786    1.6508767243    0.8767010753
H       -1.8040040523    0.9521054458    0.4248863300
O       -2.6388996636    0.0991271871    2.9869796362
H       -1.8814753859    0.4968002707    2.4693046401
H       -2.4078875895    0.2799232789    3.9268736158
O       -3.0784662143    1.8929970609   -3.7129526960
H       -2.6265956048    2.3654691801   -2.9480470130
H       -2.8717144516    2.4459013374   -4.5074825911
O       -5.2681428194    1.8051047860   -2.5003496685
H       -4.4619762539    1.8539156042   -3.0829392380
H       -5.1359851580    2.5547655758   -1.8712762257
O       -2.5865412621    3.5911080816    2.0567085745
H       -2.0994481876    2.7665007031    1.7843929105
H       -3.3224716935    3.1984507042    2.5838844534
54   
Iteration 8 Energy -1349.74031030
O       -5.8275086696   -0.6430763338    1.1709059991
H       -5.0988290635   -1.2652299379    1.5710154104
H       -6.6846925868   -1.0040199092    1.4692757041
O       -2.6114640445    0.5045970235   -0.7432454166
H       -2.2646825359   -0.0063807664   -1.5270970242
H       -3.5758321661    0.2111041382   -0.7544435490
O       -2.4195894899   -2.6644391917    0.2447224077
H       -2.2397714968   -3.6268864513    0.2914442985
H       -2.8990827370   -2.5310452860   -0.6776035967
O       -4.6214622043    1.5706873112    1.6821596015
H       -3.9144178715    1.1187110370    2.1950440308
H       -5.2619157701    0.8246340146    1.5416435208
O        0.1596101012    2.2506601010   -0.6708446317
H       -0.6799750354    2.6515737640   -1.0451217182
H        0.8224245787    2.9727997788   -0.7342648096
O       -3.9975629171   -1.9540305392    2.0688206048
H       -3.4499931220   -1.2796422116    2.5359181906
H       -3.3885094798   -2.2882745223    1.3526989944
O       -4.8637216836   -0.2672069142   -1.1004979938
H       -5.4005619050   -0.3895923539   -0.2667370125
H       -5.2312970444    0.4807162458   -1.6495079866
O       -2.1452577936    2.7054973101   -1.6047336838
H       -2.3337623338    1.7798252580   -1.2473204915
H       -2.8545318374    3.1901400645   -1.1030911989
O        0.2756444366   -0.0819454017   -2.0645359475
H        0.1866831651   -0.6690220451   -1.2610769268
H        0.3539769641    0.8182499956   -1.6694584467
O       -4.1001486539    3.3444736709   -0.1245492322
H       -4.2883482936    2.5696772742    0.4792904652
H       -3.7409001402    3.9766354149    0.5367833401
O       -3.4907720869   -2.2728827552   -1.8200441213
H       -2.8805983866   -1.7676337989   -2.4109182271
H       -4.1894154856   -1.5898503783   -1.6214619269
O       -0.1336317146   -1.4650710186    0.0394360467
H       -1.0075410453   -1.9498912765    0.1276335892
H       -0.1400771039   -0.9059064297    0.8475960367
O       -1.9641419662   -0.5149257360   -2.9197831442
H       -0.9771924084   -0.3591640107   -2.7353314559
H       -2.2848327533    0.2379183071   -3.4633298482
O       -1.3545536960    1.3053615733    1.2613327735
H       -0.5177592100    1.6402269199    0.8660391414
H       -1.8175961130    0.9413146007    0.4550529655
O       -2.6471205724    0.1029748916    2.9878729965
H       -1.9116327927    0.5040210276    2.4414258002
H       -2.3976772429    0.2826420177    3.9208957467
O       -3.0513691725    1.8899663868   -3.6957459566
H       -2.5914505026    2.3956648927   -2.9501529767
H       -2.8739758170    2.4306294645   -4.4953608817
O       -5.2914644573    1.7804114646   -2.4731164815
H       -4.4968271490    1.8281655353   -3.0788616945
H       -5.1382855406    2.5378210703   -1.8634318972
O       -2.5753635571    3.5921523487    2.0569294278
H       -2.0963375160    2.7663166623    1.7803248863
H       -3.3082240878    3.2118277050    2.5967662991
54   
Iteration 9 Energy -1349.74001428
O       -5.7733350408   -0.6532142862    1.1715470188
H       -5.0725747444   -1.2989127275    1.5891057271
H       -6.6500166523   -0.9909389024    1.4461995093
O       -2.5765391740    0.4768655192   -0.7364863478
H       -2.2558145253   -0.0471727667   -1.5311319751
H       -3.5657892892    0.2530158864   -0.7211689012
O       -2.3732616000   -2.6631941939    0.2517979281
H       -2.2248210892   -3.6295186789    0.2866759255
H       -2.8612283616   -2.5170296012   -0.6684906658
O       -4.6038972153    1.5642588285    1.6921632700
H       -3.9103949923    1.0916514581    2.2084445798
H       -5.2637704172    0.8426312107    1.5159546790
O        0.1412102712    2.2418864511   -0.6898014547
H       -0.6881431562    2.6458254834   -1.0827190232
H        0.7976285450    2.9692203265   -0.7399789004
O       -4.0220170616   -1.9268487244    2.0652537024
H       -3.4643634113   -1.2595961260    2.5336735793
H       -3.4077439172   -2.2672081908    1.3480203400
O       -4.8818426322   -0.2749863656   -1.0993014062
H       -5.4512579728   -0.3901533369   -0.2842984443
H       -5.2086295091    0.4927580053   -1.6539046415
O       -2.1395802232    2.7405348856   -1.5887067719
H       -2.3438268083    1.8030604451   -1.2432746758
H       -2.8567277516    3.2107354742   -1.0831605991
O        0.2725332353   -0.0938099162   -2.0581896384
H        0.2189434462   -0.6727505967   -1.2449358023
H        0.3318462755    0.8091368613   -1.6648258739
O       -4.0935229445    3.3474373066   -0.1324148323
H       -4.3130615459    2.5764476490    0.4678527363
H       -3.7266426189    3.9753113942    0.5306232142
O       -3.5160026629   -2.2659818704   -1.8534401207
H       -2.8836515326   -1.7615772619   -2.4289493618
H       -4.2049855605   -1.5730728559   -1.6456518014
O       -0.1655356014   -1.4798063411    0.0440980055
H       -1.0439949101   -1.9530430372    0.1284705591
H       -0.1425470770   -0.9130100294    0.8468782443
O       -1.9384579566   -0.5111257440   -2.9119890650
H       -0.9450213930   -0.3210405597   -2.7545630980
H       -2.2836759661    0.2269427357   -3.4620880884
O       -1.3298827124    1.3143185516    1.2780332762
H       -0.5099148367    1.6276777775    0.8312274056
H       -1.8660471923    0.9227068384    0.5206466594
O       -2.6663240976    0.1040308477    2.9890347353
H       -1.9569663386    0.5154050077    2.4162648200
H       -2.3825875595    0.2871243745    3.9094793341
O       -3.0392916064    1.8791305763   -3.7011855411
H       -2.5822787090    2.3620294885   -2.9281801125
H       -2.8754620483    2.4348234257   -4.4902519470
O       -5.3128992419    1.7574773006   -2.4500318789
H       -4.5205991455    1.7958254110   -3.0634761590
H       -5.1498410789    2.5269016765   -1.8591740785
O       -2.5614444716    3.5962510295    2.0574050673
H       -2.1018343508    2.7623784533    1.7769809832
H       -3.2874330772    3.2314714354    2.6152999061
54   
Iteration 10 Energy -1349.74386702
O       -5.7977468242   -0.6371364498    1.1596244659
H       -5.0646127152   -1.2589486515    1.5612122592
H       -6.6618757739   -0.9993094595    1.4478512309
O       -2.5893862624    0.4843274918   -0.7307969927
H       -2.2525503297   -0.0210713161   -1.5266114029
H       -3.5710442198    0.2351123895   -0.7336876322
O       -2.3961573205   -2.6504626403    0.2251021385